<?xml version="1.0"?>
<VTKFile type="UnstructuredGrid"  version="0.1"  >
<UnstructuredGrid>
<Piece  NumberOfPoints="343" NumberOfCells="1296">
<Points>
<DataArray  type="Float64"  NumberOfComponents="3"  format="ascii">0 0 0  0.1666666666666667 0 0  0.3333333333333333 0 0  0.5 0 0  0.6666666666666666 0 0  0.8333333333333334 0 0  1 0 0  0 0.1666666666666667 0  0.1666666666666667 0.1666666666666667 0  0.3333333333333333 0.1666666666666667 0  0.5 0.1666666666666667 0  0.6666666666666666 0.1666666666666667 0  0.8333333333333334 0.1666666666666667 0  1 0.1666666666666667 0  0 0.3333333333333333 0  0.1666666666666667 0.3333333333333333 0  0.3333333333333333 0.3333333333333333 0  0.5 0.3333333333333333 0  0.6666666666666666 0.3333333333333333 0  0.8333333333333334 0.3333333333333333 0  1 0.3333333333333333 0  0 0.5 0  0.1666666666666667 0.5 0  0.3333333333333333 0.5 0  0.5 0.5 0  0.6666666666666666 0.5 0  0.8333333333333334 0.5 0  1 0.5 0  0 0.6666666666666666 0  0.1666666666666667 0.6666666666666666 0  0.3333333333333333 0.6666666666666666 0  0.5 0.6666666666666666 0  0.6666666666666666 0.6666666666666666 0  0.8333333333333334 0.6666666666666666 0  1 0.6666666666666666 0  0 0.8333333333333334 0  0.1666666666666667 0.8333333333333334 0  0.3333333333333333 0.8333333333333334 0  0.5 0.8333333333333334 0  0.6666666666666666 0.8333333333333334 0  0.8333333333333334 0.8333333333333334 0  1 0.8333333333333334 0  0 1 0  0.1666666666666667 1 0  0.3333333333333333 1 0  0.5 1 0  0.6666666666666666 1 0  0.8333333333333334 1 0  1 1 0  0 0 0.1666666666666667  0.1666666666666667 0 0.1666666666666667  0.3333333333333333 0 0.1666666666666667  0.5 0 0.1666666666666667  0.6666666666666666 0 0.1666666666666667  0.8333333333333334 0 0.1666666666666667  1 0 0.1666666666666667  0 0.1666666666666667 0.1666666666666667  0.1666666666666667 0.1666666666666667 0.1666666666666667  0.3333333333333333 0.1666666666666667 0.1666666666666667  0.5 0.1666666666666667 0.1666666666666667  0.6666666666666666 0.1666666666666667 0.1666666666666667  0.8333333333333334 0.1666666666666667 0.1666666666666667  1 0.1666666666666667 0.1666666666666667  0 0.3333333333333333 0.1666666666666667  0.1666666666666667 0.3333333333333333 0.1666666666666667  0.3333333333333333 0.3333333333333333 0.1666666666666667  0.5 0.3333333333333333 0.1666666666666667  0.6666666666666666 0.3333333333333333 0.1666666666666667  0.8333333333333334 0.3333333333333333 0.1666666666666667  1 0.3333333333333333 0.1666666666666667  0 0.5 0.1666666666666667  0.1666666666666667 0.5 0.1666666666666667  0.3333333333333333 0.5 0.1666666666666667  0.5 0.5 0.1666666666666667  0.6666666666666666 0.5 0.1666666666666667  0.8333333333333334 0.5 0.1666666666666667  1 0.5 0.1666666666666667  0 0.6666666666666666 0.1666666666666667  0.1666666666666667 0.6666666666666666 0.1666666666666667  0.3333333333333333 0.6666666666666666 0.1666666666666667  0.5 0.6666666666666666 0.1666666666666667  0.6666666666666666 0.6666666666666666 0.1666666666666667  0.8333333333333334 0.6666666666666666 0.1666666666666667  1 0.6666666666666666 0.1666666666666667  0 0.8333333333333334 0.1666666666666667  0.1666666666666667 0.8333333333333334 0.1666666666666667  0.3333333333333333 0.8333333333333334 0.1666666666666667  0.5 0.8333333333333334 0.1666666666666667  0.6666666666666666 0.8333333333333334 0.1666666666666667  0.8333333333333334 0.8333333333333334 0.1666666666666667  1 0.8333333333333334 0.1666666666666667  0 1 0.1666666666666667  0.1666666666666667 1 0.1666666666666667  0.3333333333333333 1 0.1666666666666667  0.5 1 0.1666666666666667  0.6666666666666666 1 0.1666666666666667  0.8333333333333334 1 0.1666666666666667  1 1 0.1666666666666667  0 0 0.3333333333333333  0.1666666666666667 0 0.3333333333333333  0.3333333333333333 0 0.3333333333333333  0.5 0 0.3333333333333333  0.6666666666666666 0 0.3333333333333333  0.8333333333333334 0 0.3333333333333333  1 0 0.3333333333333333  0 0.1666666666666667 0.3333333333333333  0.1666666666666667 0.1666666666666667 0.3333333333333333  0.3333333333333333 0.1666666666666667 0.3333333333333333  0.5 0.1666666666666667 0.3333333333333333  0.6666666666666666 0.1666666666666667 0.3333333333333333  0.8333333333333334 0.1666666666666667 0.3333333333333333  1 0.1666666666666667 0.3333333333333333  0 0.3333333333333333 0.3333333333333333  0.1666666666666667 0.3333333333333333 0.3333333333333333  0.3333333333333333 0.3333333333333333 0.3333333333333333  0.5 0.3333333333333333 0.3333333333333333  0.6666666666666666 0.3333333333333333 0.3333333333333333  0.8333333333333334 0.3333333333333333 0.3333333333333333  1 0.3333333333333333 0.3333333333333333  0 0.5 0.3333333333333333  0.1666666666666667 0.5 0.3333333333333333  0.3333333333333333 0.5 0.3333333333333333  0.5 0.5 0.3333333333333333  0.6666666666666666 0.5 0.3333333333333333  0.8333333333333334 0.5 0.3333333333333333  1 0.5 0.3333333333333333  0 0.6666666666666666 0.3333333333333333  0.1666666666666667 0.6666666666666666 0.3333333333333333  0.3333333333333333 0.6666666666666666 0.3333333333333333  0.5 0.6666666666666666 0.3333333333333333  0.6666666666666666 0.6666666666666666 0.3333333333333333  0.8333333333333334 0.6666666666666666 0.3333333333333333  1 0.6666666666666666 0.3333333333333333  0 0.8333333333333334 0.3333333333333333  0.1666666666666667 0.8333333333333334 0.3333333333333333  0.3333333333333333 0.8333333333333334 0.3333333333333333  0.5 0.8333333333333334 0.3333333333333333  0.6666666666666666 0.8333333333333334 0.3333333333333333  0.8333333333333334 0.8333333333333334 0.3333333333333333  1 0.8333333333333334 0.3333333333333333  0 1 0.3333333333333333  0.1666666666666667 1 0.3333333333333333  0.3333333333333333 1 0.3333333333333333  0.5 1 0.3333333333333333  0.6666666666666666 1 0.3333333333333333  0.8333333333333334 1 0.3333333333333333  1 1 0.3333333333333333  0 0 0.5  0.1666666666666667 0 0.5  0.3333333333333333 0 0.5  0.5 0 0.5  0.6666666666666666 0 0.5  0.8333333333333334 0 0.5  1 0 0.5  0 0.1666666666666667 0.5  0.1666666666666667 0.1666666666666667 0.5  0.3333333333333333 0.1666666666666667 0.5  0.5 0.1666666666666667 0.5  0.6666666666666666 0.1666666666666667 0.5  0.8333333333333334 0.1666666666666667 0.5  1 0.1666666666666667 0.5  0 0.3333333333333333 0.5  0.1666666666666667 0.3333333333333333 0.5  0.3333333333333333 0.3333333333333333 0.5  0.5 0.3333333333333333 0.5  0.6666666666666666 0.3333333333333333 0.5  0.8333333333333334 0.3333333333333333 0.5  1 0.3333333333333333 0.5  0 0.5 0.5  0.1666666666666667 0.5 0.5  0.3333333333333333 0.5 0.5  0.5 0.5 0.5  0.6666666666666666 0.5 0.5  0.8333333333333334 0.5 0.5  1 0.5 0.5  0 0.6666666666666666 0.5  0.1666666666666667 0.6666666666666666 0.5  0.3333333333333333 0.6666666666666666 0.5  0.5 0.6666666666666666 0.5  0.6666666666666666 0.6666666666666666 0.5  0.8333333333333334 0.6666666666666666 0.5  1 0.6666666666666666 0.5  0 0.8333333333333334 0.5  0.1666666666666667 0.8333333333333334 0.5  0.3333333333333333 0.8333333333333334 0.5  0.5 0.8333333333333334 0.5  0.6666666666666666 0.8333333333333334 0.5  0.8333333333333334 0.8333333333333334 0.5  1 0.8333333333333334 0.5  0 1 0.5  0.1666666666666667 1 0.5  0.3333333333333333 1 0.5  0.5 1 0.5  0.6666666666666666 1 0.5  0.8333333333333334 1 0.5  1 1 0.5  0 0 0.6666666666666666  0.1666666666666667 0 0.6666666666666666  0.3333333333333333 0 0.6666666666666666  0.5 0 0.6666666666666666  0.6666666666666666 0 0.6666666666666666  0.8333333333333334 0 0.6666666666666666  1 0 0.6666666666666666  0 0.1666666666666667 0.6666666666666666  0.1666666666666667 0.1666666666666667 0.6666666666666666  0.3333333333333333 0.1666666666666667 0.6666666666666666  0.5 0.1666666666666667 0.6666666666666666  0.6666666666666666 0.1666666666666667 0.6666666666666666  0.8333333333333334 0.1666666666666667 0.6666666666666666  1 0.1666666666666667 0.6666666666666666  0 0.3333333333333333 0.6666666666666666  0.1666666666666667 0.3333333333333333 0.6666666666666666  0.3333333333333333 0.3333333333333333 0.6666666666666666  0.5 0.3333333333333333 0.6666666666666666  0.6666666666666666 0.3333333333333333 0.6666666666666666  0.8333333333333334 0.3333333333333333 0.6666666666666666  1 0.3333333333333333 0.6666666666666666  0 0.5 0.6666666666666666  0.1666666666666667 0.5 0.6666666666666666  0.3333333333333333 0.5 0.6666666666666666  0.5 0.5 0.6666666666666666  0.6666666666666666 0.5 0.6666666666666666  0.8333333333333334 0.5 0.6666666666666666  1 0.5 0.6666666666666666  0 0.6666666666666666 0.6666666666666666  0.1666666666666667 0.6666666666666666 0.6666666666666666  0.3333333333333333 0.6666666666666666 0.6666666666666666  0.5 0.6666666666666666 0.6666666666666666  0.6666666666666666 0.6666666666666666 0.6666666666666666  0.8333333333333334 0.6666666666666666 0.6666666666666666  1 0.6666666666666666 0.6666666666666666  0 0.8333333333333334 0.6666666666666666  0.1666666666666667 0.8333333333333334 0.6666666666666666  0.3333333333333333 0.8333333333333334 0.6666666666666666  0.5 0.8333333333333334 0.6666666666666666  0.6666666666666666 0.8333333333333334 0.6666666666666666  0.8333333333333334 0.8333333333333334 0.6666666666666666  1 0.8333333333333334 0.6666666666666666  0 1 0.6666666666666666  0.1666666666666667 1 0.6666666666666666  0.3333333333333333 1 0.6666666666666666  0.5 1 0.6666666666666666  0.6666666666666666 1 0.6666666666666666  0.8333333333333334 1 0.6666666666666666  1 1 0.6666666666666666  0 0 0.8333333333333334  0.1666666666666667 0 0.8333333333333334  0.3333333333333333 0 0.8333333333333334  0.5 0 0.8333333333333334  0.6666666666666666 0 0.8333333333333334  0.8333333333333334 0 0.8333333333333334  1 0 0.8333333333333334  0 0.1666666666666667 0.8333333333333334  0.1666666666666667 0.1666666666666667 0.8333333333333334  0.3333333333333333 0.1666666666666667 0.8333333333333334  0.5 0.1666666666666667 0.8333333333333334  0.6666666666666666 0.1666666666666667 0.8333333333333334  0.8333333333333334 0.1666666666666667 0.8333333333333334  1 0.16666666666
[...]
<PointData  Scalars="f_20"> 
<DataArray  type="Float64"  Name="f_20"  format="ascii">0.0000000000000000e+00  2.7777777777777775e-03  1.1111111111111110e-02  2.5000000000000001e-02  4.4444444444444439e-02  6.9444444444444461e-02  1.0000000000000001e-01  0.0000000000000000e+00  2.7777777777777775e-03  1.1111111111111110e-02  2.5000000000000001e-02  4.4444444444444439e-02  6.9444444444444461e-02  1.0000000000000001e-01  0.0000000000000000e+00  2.7777777777777775e-03  1.1111111111111110e-02  2.5000000000000001e-02  4.4444444444444439e-02  6.9444444444444461e-02  1.0000000000000001e-01  0.0000000000000000e+00  2.7777777777777775e-03  1.1111111111111110e-02  2.5000000000000001e-02  4.4444444444444439e-02  6.9444444444444461e-02  1.0000000000000001e-01  0.0000000000000000e+00  2.7777777777777775e-03  1.1111111111111110e-02  2.5000000000000001e-02  4.4444444444444439e-02  6.9444444444444461e-02  1.0000000000000001e-01  0.0000000000000000e+00  2.7777777777777775e-03  1.1111111111111110e-02  2.5000000000000001e-02  4.4444444444444439e-02  6.9444444444444461e-02  1.0000000000000001e-01  0.0000000000000000e+00  2.7777777777777775e-03  1.1111111111111110e-02  2.5000000000000001e-02  4.4444444444444439e-02  6.9444444444444461e-02  1.0000000000000001e-01  0.0000000000000000e+00  2.7777777777777775e-03  1.1111111111111110e-02  2.5000000000000001e-02  4.4444444444444439e-02  6.9444444444444461e-02  1.0000000000000001e-01  -2.7777777777777776e-02  -2.4999999999999998e-02  -1.6666666666666666e-02  -2.7777777777777748e-03  1.6666666666666663e-02  4.1666666666666685e-02  7.2222222222222229e-02  -5.5555555555555552e-02  -5.2777777777777778e-02  -4.4444444444444439e-02  -3.0555555555555551e-02  -1.1111111111111113e-02  1.3888888888888909e-02  4.4444444444444453e-02  -8.3333333333333329e-02  -8.0555555555555547e-02  -7.2222222222222215e-02  -5.8333333333333327e-02  -3.8888888888888890e-02  -1.3888888888888867e-02  1.6666666666666677e-02  -1.1111111111111110e-01  -1.0833333333333332e-01  -9.9999999999999992e-02  -8.6111111111111110e-02  -6.6666666666666666e-02  -4.1666666666666644e-02  -1.1111111111111099e-02  -1.3888888888888890e-01  -1.3611111111111113e-01  -1.2777777777777780e-01  -1.1388888888888890e-01  -9.4444444444444456e-02  -6.9444444444444434e-02  -3.8888888888888890e-02  -1.6666666666666666e-01  -1.6388888888888889e-01  -1.5555555555555556e-01  -1.4166666666666666e-01  -1.2222222222222222e-01  -9.7222222222222196e-02  -6.6666666666666652e-02  0.0000000000000000e+00  2.7777777777777775e-03  1.1111111111111110e-02  2.5000000000000001e-02  4.4444444444444439e-02  6.9444444444444461e-02  1.0000000000000001e-01  -5.5555555555555552e-02  -5.2777777777777778e-02  -4.4444444444444439e-02  -3.0555555555555551e-02  -1.1111111111111113e-02  1.3888888888888909e-02  4.4444444444444453e-02  -1.1111111111111110e-01  -1.0833333333333332e-01  -9.9999999999999992e-02  -8.6111111111111110e-02  -6.6666666666666666e-02  -4.1666666666666644e-02  -1.1111111111111099e-02  -1.6666666666666666e-01  -1.6388888888888889e-01  -1.5555555555555556e-01  -1.4166666666666666e-01  -1.2222222222222222e-01  -9.7222222222222196e-02  -6.6666666666666652e-02  -2.2222222222222221e-01  -2.1944444444444444e-01  -2.1111111111111111e-01  -1.9722222222222222e-01  -1.7777777777777776e-01  -1.5277777777777773e-01  -1.2222222222222220e-01  -2.7777777777777779e-01  -2.7500000000000002e-01  -2.6666666666666666e-01  -2.5277777777777777e-01  -2.3333333333333334e-01  -2.0833333333333331e-01  -1.7777777777777778e-01  -3.3333333333333331e-01  -3.3055555555555555e-01  -3.2222222222222219e-01  -3.0833333333333329e-01  -2.8888888888888886e-01  -2.6388888888888884e-01  -2.3333333333333331e-01  0.0000000000000000e+00  2.7777777777777775e-03  1.1111111111111110e-02  2.5000000000000001e-02  4.4444444444444439e-02  6.9444444444444461e-02  1.0000000000000001e-01  -8.3333333333333329e-02  -8.0555555555555547e-02  -7.2222222222222215e-02  -5.8333333333333327e-02  -3.8888888888888890e-02  -1.3888888888888867e-02  1.6666666666666677e-02  -1.6666666666666666e-01  -1.6388888888888889e-01  -1.5555555555555556e-01  -1.4166666666666666e-01  -1.2222222222222222e-01  -9.7222222222222196e-02  -6.6666666666666652e-02  -2.5000000000000000e-01  -2.4722222222222223e-01  -2.3888888888888890e-01  -2.2500000000000001e-01  -2.0555555555555555e-01  -1.8055555555555552e-01  -1.4999999999999999e-01  -3.3333333333333331e-01  -3.3055555555555555e-01  -3.2222222222222219e-01  -3.0833333333333329e-01  -2.8888888888888886e-01  -2.6388888888888884e-01  -2.3333333333333331e-01  -4.1666666666666669e-01  -4.1388888888888892e-01  -4.0555555555555556e-01  -3.9166666666666666e-01  -3.7222222222222223e-01  -3.4722222222222221e-01  -3.1666666666666665e-01  -5.0000000000000000e-01  -4.9722222222222223e-01  -4.8888888888888887e-01  -4.7499999999999998e-01  -4.5555555555555555e-01  -4.3055555555555552e-01  -4.0000000000000002e-01  0.0000000000000000e+00  2.7777777777777775e-03  1.1111111111111110e-02  2.5000000000000001e-02  4.4444444444444439e-02  6.9444444444444461e-02  1.0000000000000001e-01  -1.1111111111111110e-01  -1.0833333333333332e-01  -9.9999999999999992e-02  -8.6111111111111110e-02  -6.6666666666666666e-02  -4.1666666666666644e-02  -1.1111111111111099e-02  -2.2222222222222221e-01  -2.1944444444444444e-01  -2.1111111111111111e-01  -1.9722222222222222e-01  -1.7777777777777776e-01  -1.5277777777777773e-01  -1.2222222222222220e-01  -3.3333333333333331e-01  -3.3055555555555555e-01  -3.2222222222222219e-01  -3.0833333333333329e-01  -2.8888888888888886e-01  -2.6388888888888884e-01  -2.3333333333333331e-01  -4.4444444444444442e-01  -4.4166666666666665e-01  -4.3333333333333329e-01  -4.1944444444444440e-01  -3.9999999999999997e-01  -3.7499999999999994e-01  -3.4444444444444444e-01  -5.5555555555555558e-01  -5.5277777777777781e-01  -5.4444444444444451e-01  -5.3055555555555556e-01  -5.1111111111111118e-01  -4.8611111111111110e-01  -4.5555555555555560e-01  -6.6666666666666663e-01  -6.6388888888888886e-01  -6.5555555555555556e-01  -6.4166666666666661e-01  -6.2222222222222223e-01  -5.9722222222222221e-01  -5.6666666666666665e-01  0.0000000000000000e+00  2.7777777777777775e-03  1.1111111111111110e-02  2.5000000000000001e-02  4.4444444444444439e-02  6.9444444444444461e-02  1.0000000000000001e-01  -1.3888888888888890e-01  -1.3611111111111113e-01  -1.2777777777777780e-01  -1.1388888888888890e-01  -9.4444444444444456e-02  -6.9444444444444434e-02  -3.8888888888888890e-02  -2.7777777777777779e-01  -2.7500000000000002e-01  -2.6666666666666666e-01  -2.5277777777777777e-01  -2.3333333333333334e-01  -2.0833333333333331e-01  -1.7777777777777778e-01  -4.1666666666666669e-01  -4.1388888888888892e-01  -4.0555555555555556e-01  -3.9166666666666666e-01  -3.7222222222222223e-01  -3.4722222222222221e-01  -3.1666666666666665e-01  -5.5555555555555558e-01  -5.5277777777777781e-01  -5.4444444444444451e-01  -5.3055555555555556e-01  -5.1111111111111118e-01  -4.8611111111111110e-01  -4.5555555555555560e-01  -6.9444444444444453e-01  -6.9166666666666676e-01  -6.8333333333333346e-01  -6.6944444444444451e-01  -6.5000000000000013e-01  -6.2500000000000011e-01  -5.9444444444444455e-01  -8.3333333333333337e-01  -8.3055555555555560e-01  -8.2222222222222230e-01  -8.0833333333333335e-01  -7.8888888888888897e-01  -7.6388888888888895e-01  -7.3333333333333339e-01  0.0000000000000000e+00  2.7777777777777775e-03  1.1111111111111110e-02  2.5000000000000001e-02  4.4444444444444439e-02  6.9444444444444461e-02  1.0000000000000001e-01  -1.6666666666666666e-01  -1.6388888888888889e-01  -1.5555555555555556e-01  -1.4166666666666666e-01  -1.2222222222222222e-01  -9.7222222222222196e-02  -6.6666666666666652e-02  -3.3333333333333331e-01  -3.3055555555555555e-01  -3.2222222222222219e-01  -3.0833333333333329e-01  -2.8888888888888886e-01  -2.6388888888888884e-01  -2.3333333333333331e-01  -5.0000000000000000e-01  -4.9722222222222223e-01  -4.8888888888888887e-01  -4.7499999999999998e-01  -4.5555555555555555e-01  -4.3055555555555552e-01  -4.0000000000000002e-01  -6.6666666666666663e-01  -6.6388888888888886e-01  -6.5555555555555556e-01  -6.4166666666666661e-01  -6.2222222222222223e-01  -5.9722222222222221e-01  -5.6666666666666665e-01  -8.3333333333333337e-01  -8.3055555555555560e-01  -8.2222222222222230e-01  -8.0833333333333335e-01  -7.8888888888888897e-01  -7.6388888888888895e-01  -7.3333333333333339e-01  -1.0000000000000000e+00  -9.9722222222222223e-01  -9.8888888888888893e-01  -9.7499999999999998e-01  -9.5555555555555560e-01  -9.3055555555555558e-01  -9.0000000000000002e-01  </DataArray> 
</PointData> 
</Piece>
</UnstructuredGrid>
</VTKFile>